32
Energy = -1142.566621137 Hartree (EUMP2 CORRECTED)
O      0.621125    -0.580947     0.549191
C      1.878442     0.113871     0.546507
H      2.665217    -0.647042     0.564776
H      1.965924     0.758449     1.432083
C     -0.368917     0.312488    -0.030638
H     -0.938223    -0.268972    -0.764157
H     -1.043011     0.689133     0.742647
C      1.830406     0.951477    -0.722833
H      1.969982     0.304304    -1.598748
H      2.555090     1.770875    -0.748489
C      0.398219     1.479720    -0.670581
H     -0.020896     1.728392    -1.649071
O      0.401976     2.617824     0.197375
P     -0.854963     3.738551     0.040143
O     -0.927774     4.524826     1.316821
O     -2.001773     2.992039    -0.610195
O     -0.198987     4.792901    -1.097855
C      0.461014     4.320687    -2.257888
H     -0.239965     3.792260    -2.920724
H      1.287114     3.643103    -1.988298
C      1.048112     5.519747    -2.983992
H      1.628014     5.156995    -3.844276
O      0.014060     6.360157    -3.537645
C     -0.220820     7.411766    -2.583006
H     -0.739819     8.212345    -3.119273
H     -0.841332     7.039070    -1.761323
C      1.177164     7.785550    -2.100973
H      1.167167     8.295139    -1.131359
H      1.656976     8.442073    -2.836776
C      1.883385     6.420161    -2.043491
H      1.857436     6.015137    -1.028162
H      2.927359     6.483333    -2.370480
