32
Energy = -1142.564643553 Hartree (EUMP2 CORRECTED)
O      1.395923    -0.045517     0.231146
C      2.011596     0.983039    -0.573033
H      2.857262     0.519283    -1.091096
H      2.381886     1.790731     0.073724
C     -0.017614     0.260700     0.341256
H     -0.571901    -0.618745    -0.011516
H     -0.271082     0.466883     1.385675
C      0.902308     1.479076    -1.485144
H      0.726292     0.747114    -2.285812
H      1.080439     2.463485    -1.925812
C     -0.286663     1.490085    -0.526266
H     -1.249828     1.451113    -1.043702
O     -0.243900     2.644470     0.323470
P     -1.277143     3.933413    -0.017093
O     -1.885916     4.364450     1.292235
O     -2.073261     3.606529    -1.262139
O     -0.159637     5.102651    -0.479066
C      1.237201     5.065225    -0.259462
H      1.555782     4.059087     0.033856
H      1.514843     5.768420     0.544804
C      1.922332     5.482433    -1.552089
H      3.010913     5.391056    -1.417169
O      1.581483     4.602177    -2.637743
C      0.546325     5.251758    -3.404407
H      0.544450     4.776912    -4.390546
H     -0.422758     5.107649    -2.914826
C      0.982323     6.714275    -3.419942
H      0.161989     7.399260    -3.662120
H      1.781118     6.852234    -4.158915
C      1.520432     6.908646    -1.992619
H      0.729101     7.284756    -1.336597
H      2.367446     7.602233    -1.951202
