32
Energy = -1142.564648961 Hartree (EUMP2 CORRECTED)
O      1.850636    -0.196263     0.428891
C      2.397636     0.992076    -0.164607
H      3.407051     0.743312    -0.507261
H      2.433724     1.800934     0.577220
C      0.410766    -0.035114     0.432812
H     -0.017013    -0.974165     0.061624
H      0.063720     0.147146     1.451173
C      1.406862     1.309540    -1.274750
H      1.510169     0.572037    -2.082134
H      1.481511     2.321320    -1.684357
C      0.081879     1.124839    -0.532833
H     -0.746524     0.846347    -1.197992
O     -0.255609     2.387666     0.047273
P     -0.667399     2.592553     1.668266
O      0.576067     2.329051     2.497835
O     -1.997901     1.945101     1.953842
O     -0.903576     4.232900     1.555537
C      0.237809     5.066632     1.342461
H      0.126075     5.553298     0.364877
H      1.160981     4.471824     1.352991
C      0.310662     6.116404     2.438051
H      1.190341     6.749646     2.252940
O     -0.826545     7.008431     2.383349
C     -1.797740     6.498621     3.316904
H     -2.484510     7.323197     3.534798
H     -2.342302     5.660363     2.869643
C     -0.964734     6.047805     4.512990
H     -1.478540     5.295287     5.120893
H     -0.735831     6.912003     5.148512
C      0.312701     5.497534     3.853381
H      0.299858     4.405947     3.784932
H      1.211608     5.789769     4.407939
