32
Energy = -1142.570061562 Hartree (EUMP2 CORRECTED)
O      2.100446     1.190797     1.186834
C      2.032433     2.433690     0.454894
H      3.060456     2.704086     0.194883
H      1.587594     3.219148     1.078734
C      0.847341     0.495123     0.985585
H      1.086683    -0.519515     0.642493
H      0.289092     0.448574     1.926235
C      1.134913     2.126040    -0.731960
H      1.678714     1.532301    -1.479520
H      0.713851     3.019450    -1.200001
C      0.050204     1.279507    -0.059056
H     -0.484532     0.628488    -0.758775
O     -0.868049     2.109124     0.648332
P     -2.049994     2.997687    -0.154327
O     -1.547398     4.413275    -0.350792
O     -3.372165     2.656984     0.482520
O     -1.982410     2.224898    -1.651837
C     -1.653331     2.956934    -2.832706
H     -0.880634     2.390755    -3.371947
H     -1.266993     3.948929    -2.563767
C     -2.868547     3.106814    -3.731654
H     -2.581551     3.733022    -4.588642
O     -3.286193     1.849161    -4.296534
C     -4.182884     1.225342    -3.347766
H     -4.894323     0.641224    -3.942393
H     -3.611879     0.555490    -2.696604
C     -4.835641     2.357563    -2.534962
H     -4.681764     2.208288    -1.463398
H     -5.912104     2.422284    -2.732820
C     -4.108090     3.633501    -3.004009
H     -3.848164     4.291863    -2.168912
H     -4.725431     4.197304    -3.713768
