32
Energy = -1142.563817343 Hartree (EUMP2 CORRECTED)
O      1.536346     0.148564    -0.082150
C      1.735550     1.473195    -0.627026
H      2.611530     1.416596    -1.280418
H      1.915726     2.194671     0.178952
C      0.128242     0.002151     0.210695
H     -0.219181    -0.913845    -0.285730
H     -0.024201    -0.078502     1.291990
C      0.431375     1.788650    -1.339311
H      0.369665     1.227251    -2.282421
H      0.280734     2.855666    -1.525119
C     -0.582031     1.248818    -0.324253
H     -1.546191     0.994069    -0.775021
O     -0.730388     2.143153     0.769464
P     -1.452192     3.676504     0.649061
O     -0.349898     4.678769     0.417281
O     -2.484227     3.735637     1.745474
O     -2.236715     3.574606    -0.843038
C     -3.437443     2.801592    -0.913080
H     -4.199476     3.241784    -0.259075
H     -3.279617     1.763244    -0.586132
C     -3.923216     2.814080    -2.351827
H     -4.806018     2.163493    -2.425155
O     -4.377535     4.131789    -2.730709
C     -3.288556     4.762676    -3.426775
H     -3.714940     5.603217    -3.982866
H     -2.542508     5.120749    -2.708374
C     -2.730756     3.647797    -4.304903
H     -1.707215     3.842732    -4.644289
H     -3.372069     3.517198    -5.184790
C     -2.824682     2.429383    -3.371521
H     -1.875657     2.276170    -2.853221
H     -3.079229     1.510864    -3.912475
