32
Energy = -1142.565653662 Hartree (EUMP2 CORRECTED)
O     -1.326555     0.198961    -0.685116
C     -0.444588     0.805482    -1.659647
H     -0.923568     0.668123    -2.634026
H      0.528101     0.302593    -1.649194
C     -0.938641     0.759170     0.578606
H     -1.786539     0.631155     1.258671
H     -0.060128     0.250170     0.988367
C     -0.311536     2.265599    -1.226008
H      0.681213     2.682450    -1.415462
H     -1.053755     2.889658    -1.738106
C     -0.607237     2.236574     0.295233
H     -1.489258     2.851739     0.507256
O      0.389444     2.780362     1.154143
P      2.033185     2.463640     1.051583
O      2.520439     2.041466     2.417131
O      2.673162     3.560611     0.231636
O      1.984578     1.111563     0.045899
C      2.589227    -0.116915     0.442624
H      2.786976    -0.118088     1.523258
H      1.885009    -0.924432     0.196288
C      3.874519    -0.329605    -0.340695
H      4.270785    -1.327517    -0.100877
O      3.589907    -0.347036    -1.759761
C      3.923677     0.960246    -2.268613
H      4.044429     0.852111    -3.351620
H      3.120917     1.669829    -2.040897
C      5.200355     1.332135    -1.526438
H      5.382143     2.411669    -1.520647
H      6.057952     0.825198    -1.986413
C      4.922339     0.783359    -0.118860
H      4.522628     1.571461     0.523195
H      5.824999     0.386249     0.359200
