32
Energy = -1142.562292946 Hartree (EUMP2 CORRECTED)
O      1.519256     0.215805     0.948395
C      1.903727     1.075920    -0.147548
H      2.812442     0.647650    -0.581382
H      2.105698     2.090755     0.216681
C      0.086929     0.328224     1.110482
H     -0.327909    -0.688234     1.095463
H     -0.146661     0.812596     2.064102
C      0.696716     1.072358    -1.069729
H      0.633785     0.114611    -1.606094
H      0.676500     1.898051    -1.784889
C     -0.440159     1.180081    -0.049163
H     -1.397664     0.793078    -0.419138
O     -0.581557     2.504262     0.442972
P     -1.123622     3.818054    -0.475555
O      0.049691     4.733260    -0.710001
O     -2.450705     4.238933     0.107954
O     -1.405299     3.116996    -1.982963
C     -2.543244     2.291922    -2.228080
H     -3.242407     2.319931    -1.382376
H     -2.196326     1.259007    -2.393933
C     -3.260117     2.762776    -3.490794
H     -3.874376     1.934650    -3.870948
O     -4.177101     3.837545    -3.250553
C     -3.394125     5.055120    -3.219430
H     -4.065608     5.853957    -3.550893
H     -3.071665     5.248833    -2.192302
C     -2.198763     4.821376    -4.166350
H     -1.260245     5.028513    -3.647588
H     -2.259606     5.458097    -5.056841
C     -2.297579     3.327888    -4.541443
H     -1.321893     2.832144    -4.522919
H     -2.741394     3.202010    -5.536338
