32
Energy = -1142.563487069 Hartree (EUMP2 CORRECTED)
O      1.411240     0.021404     0.390923
C      2.018865     1.252770    -0.055065
H      3.053118     1.016270    -0.324631
H      2.008287     1.993678     0.755351
C     -0.009219     0.104935     0.114893
H     -0.282430    -0.783258    -0.468913
H     -0.569820     0.120219     1.054932
C      1.146840     1.709582    -1.211924
H      1.348432     1.095891    -2.100679
H      1.238131     2.769613    -1.458916
C     -0.247649     1.397871    -0.664842
H     -1.010086     1.295095    -1.444638
O     -0.657208     2.399139     0.275251
P     -1.508893     3.714966    -0.305337
O     -2.097285     4.429529     0.881580
O     -2.296878     3.302205    -1.532082
O     -0.150328     4.573925    -0.846176
C     -0.426735     5.655540    -1.732568
H     -1.099101     6.378311    -1.249413
H     -0.930005     5.276613    -2.630748
C      0.877917     6.394852    -2.112776
H      1.101684     6.230767    -3.172033
O      0.676024     7.826420    -1.997286
C      1.029891     8.135447    -0.642187
H      1.106164     9.223844    -0.568800
H      0.251746     7.777344     0.048528
C      2.338022     7.382237    -0.429605
H      2.557086     7.202030     0.628445
H      3.164141     7.957949    -0.862306
C      2.098805     6.077519    -1.217558
H      1.870867     5.240252    -0.555735
H      2.968628     5.811773    -1.827844
