32
Energy = -1142.567822380 Hartree (EUMP2 CORRECTED)
O      1.814823     0.595799     1.013531
C      1.892033     2.020953     0.781362
H      2.955390     2.276973     0.742895
H      1.408020     2.565496     1.601531
C      0.582480     0.119745     0.423736
H      0.837169    -0.704658    -0.255220
H     -0.092627    -0.238867     1.207620
C      1.138024     2.237246    -0.519372
H      1.743970     1.908046    -1.374602
H      0.808111     3.267321    -0.673753
C     -0.050628     1.294817    -0.322522
H     -0.520599     0.993198    -1.264303
O     -1.019633     1.869700     0.555684
P     -1.986186     3.157857     0.098435
O     -1.371929     4.454687     0.579655
O     -3.425323     2.784748     0.370830
O     -1.680344     3.035318    -1.558064
C     -2.043742     4.152182    -2.368977
H     -1.133770     4.535251    -2.850339
H     -2.477727     4.960666    -1.764266
C     -3.030602     3.707888    -3.433884
H     -3.261228     4.569824    -4.077913
O     -2.417548     2.721933    -4.303538
C     -2.931713     1.437771    -3.914141
H     -2.768278     0.761274    -4.759529
H     -2.395471     1.071975    -3.029705
C     -4.394843     1.709116    -3.592727
H     -4.850973     0.924029    -2.979437
H     -4.963556     1.802863    -4.526502
C     -4.301748     3.051776    -2.854900
H     -4.190373     2.891517    -1.776948
H     -5.184169     3.680625    -3.019436
