32
Energy = -1142.562070536 Hartree (EUMP2 CORRECTED)
O     -1.049845    -0.527722    -0.816986
C     -0.428079    -0.290003    -2.108198
H     -1.228274    -0.140987    -2.847183
H      0.137644    -1.186345    -2.385947
C     -0.738667     0.590015     0.038365
H     -1.620953     0.802697     0.649805
H      0.114926     0.360725     0.691515
C      0.445476     0.949053    -1.950790
H      0.593658     1.499333    -2.883035
H      1.434117     0.705621    -1.555957
C     -0.346850     1.729549    -0.899052
H     -1.248949     2.154571    -1.366495
O      0.264879     2.770450    -0.157923
P      1.817518     3.405281    -0.326085
O      1.665255     4.882877    -0.049892
O      2.520637     2.821994    -1.523489
O      2.520603     2.698807     1.021106
C      2.061513     3.110621     2.310250
H      1.584069     2.249840     2.797589
H      1.335765     3.930187     2.222423
C      3.245210     3.577170     3.139931
H      2.880051     3.872138     4.134374
O      4.174205     2.492379     3.373613
C      5.209675     2.611362     2.380353
H      6.064573     2.034365     2.748170
H      4.859697     2.204937     1.425306
C      5.461677     4.112398     2.286940
H      5.932040     4.402306     1.340945
H      6.113171     4.427354     3.111420
C      4.048970     4.699653     2.446830
H      3.595814     4.939181     1.480561
H      4.053674     5.613004     3.052448
