32
Energy = -1142.568273256 Hartree (EUMP2 CORRECTED)
O      1.320974    -0.296532    -1.415498
C      2.247031     0.809176    -1.458279
H      2.971827     0.586926    -2.247047
H      2.755593     0.906782    -0.491164
C      0.231073     0.187271    -0.607583
H     -0.644745    -0.419095    -0.858905
H      0.471305     0.098012     0.457250
C      1.357954     2.017071    -1.737331
H      1.781354     2.969213    -1.404790
H      1.139342     2.070084    -2.810916
C      0.062444     1.684287    -0.961235
H     -0.815692     1.838289    -1.598040
O     -0.208299     2.495892     0.186674
P      1.006087     2.888254     1.291610
O      1.776809     4.073893     0.740433
O      1.685420     1.633839     1.783621
O     -0.018477     3.409332     2.487450
C     -0.723967     4.638594     2.292915
H     -1.797411     4.412044     2.265401
H     -0.425064     5.113625     1.349177
C     -0.424118     5.581599     3.445534
H     -0.984903     6.513753     3.285096
O     -0.913101     5.045377     4.696790
C      0.200205     4.385152     5.328376
H     -0.055838     4.285147     6.388264
H      0.352498     3.397281     4.880732
C      1.382827     5.309097     5.056022
H      2.345000     4.789633     5.121564
H      1.380689     6.132025     5.781263
C      1.089147     5.826535     3.636829
H      1.655855     5.279537     2.877910
H      1.330849     6.890569     3.535038
