32
Energy = -1142.568114297 Hartree (EUMP2 CORRECTED)
O      0.860027    -0.437733     0.732454
C      1.735485     0.437511    -0.006892
H      2.573503    -0.173828    -0.355658
H      2.108428     1.240639     0.642979
C     -0.466022     0.144234     0.690969
H     -1.160376    -0.654734     0.404645
H     -0.736337     0.537367     1.676309
C      0.854708     1.004723    -1.107237
H      0.680551     0.240450    -1.877650
H      1.230709     1.919622    -1.570232
C     -0.433745     1.287775    -0.332063
H     -1.334297     1.289728    -0.959201
O     -0.318506     2.518419     0.380520
P     -1.013270     3.884462    -0.316177
O     -0.286514     5.067695     0.261465
O     -2.515392     3.703724    -0.342297
O     -0.454725     3.652281    -1.894152
C     -1.355532     3.505014    -2.986370
H     -2.382547     3.710212    -2.666441
H     -1.297321     2.466826    -3.361325
C     -0.939545     4.453229    -4.099942
H     -1.547260     4.232520    -4.989542
O     -1.230051     5.820823    -3.756586
C     -0.026354     6.378762    -3.190610
H     -0.133213     7.466438    -3.248011
H      0.084040     6.069072    -2.146546
C      1.081225     5.817978    -4.079056
H      2.058229     5.819486    -3.583279
H      1.156464     6.413280    -4.997073
C      0.579119     4.397157    -4.394908
H      1.058147     3.662666    -3.741650
H      0.775492     4.115053    -5.435743
