32
Energy = -1142.572559525 Hartree (EUMP2 CORRECTED)
O      1.576154     0.447751    -1.210148
C      1.535517     1.749280    -1.823359
H      2.065186     1.667087    -2.777667
H      2.035584     2.490052    -1.184749
C      0.447489     0.360233    -0.301920
H     -0.054588    -0.594008    -0.500827
H      0.803441     0.382985     0.732207
C      0.050450     2.053255    -1.938737
H     -0.389857     1.455153    -2.747231
H     -0.185835     3.110589    -2.087863
C     -0.457464     1.570637    -0.582317
H     -1.517557     1.300122    -0.570413
O     -0.211768     2.624231     0.350474
P     -1.100057     2.659243     1.776909
O     -2.183319     1.600328     1.681434
O     -1.336774     4.108139     2.107560
O      0.066538     2.128522     2.860877
C     -0.015373     0.823996     3.436246
H      0.967088     0.344919     3.324308
H     -0.782740     0.227409     2.925192
C     -0.354230     0.912669     4.915624
H     -0.477119    -0.110387     5.299450
O      0.716970     1.488107     5.686986
C      0.553800     2.925717     5.646926
H      0.938821     3.300349     6.602140
H      1.147774     3.334823     4.823661
C     -0.945635     3.201267     5.431368
H     -1.098615     3.830585     4.551226
H     -1.390853     3.697388     6.302045
C     -1.562031     1.804671     5.212891
H     -2.291775     1.791545     4.397140
H     -2.050462     1.447322     6.127670
