32
Energy = -1142.567352568 Hartree (EUMP2 CORRECTED)
O      1.594154     0.030556     0.492083
C      2.113381     1.041461    -0.396325
H      3.021442     0.631352    -0.850239
H      2.366045     1.946152     0.173304
C      0.151039     0.175847     0.540102
H     -0.286148    -0.787413     0.246424
H     -0.158839     0.432680     1.557222
C      0.978058     1.305804    -1.370200
H      0.894185     0.468719    -2.076698
H      1.049204     2.234480    -1.936349
C     -0.226519     1.295229    -0.431861
H     -1.162148     1.101291    -0.965779
O     -0.344251     2.495164     0.337845
P     -1.285078     3.771388    -0.267428
O     -2.222764     4.222047     0.816845
O     -1.690916     3.370528    -1.671680
O     -0.123196     4.974423    -0.359250
C      1.030992     4.821158    -1.165990
H      0.751378     4.616605    -2.208547
H      1.656867     3.999037    -0.785685
C      1.831786     6.109764    -1.084744
H      2.769944     5.972673    -1.640556
O      1.147608     7.199294    -1.737738
C      0.428640     7.910702    -0.713366
H      0.188290     8.895835    -1.125175
H     -0.488916     7.371135    -0.456481
C      1.403565     7.944281     0.459372
H      0.903455     8.113704     1.419162
H      2.140157     8.741519     0.303015
C      2.070404     6.560369     0.376126
H      1.589539     5.857498     1.061876
H      3.139341     6.604619     0.613175
