32
Energy = -1142.557214016 Hartree (EUMP2 CORRECTED)
O      2.364688     0.868975    -0.394029
C      1.947757     2.074713    -1.068000
H      2.600019     2.191958    -1.938333
H      2.053746     2.942697    -0.404263
C      1.237229     0.413482     0.384868
H      1.146387    -0.667004     0.219930
H      1.400697     0.616657     1.449093
C      0.484218     1.834513    -1.395474
H      0.397670     1.124424    -2.229808
H     -0.065950     2.756216    -1.606766
C     -0.002679     1.188563    -0.092270
H     -0.851521     0.511006    -0.227244
O     -0.290111     2.157993     0.907505
P     -1.495430     3.340497     0.891209
O     -1.125714     4.307201    -0.222845
O     -1.732150     3.718946     2.322484
O     -2.904873     2.585883     0.360205
C     -3.029092     1.694401    -0.732793
H     -3.079138     0.658625    -0.369635
H     -2.197365     1.797078    -1.444337
C     -4.309538     2.040653    -1.477706
H     -4.404003     1.374054    -2.347275
O     -5.473834     1.786815    -0.663015
C     -5.832301     3.039771    -0.047000
H     -6.874434     2.943009     0.274000
H     -5.184709     3.229342     0.815311
C     -5.611127     4.069642    -1.150130
H     -5.470572     5.082508    -0.757709
H     -6.473326     4.073663    -1.828202
C     -4.355232     3.536935    -1.861637
H     -3.453471     4.041763    -1.500012
H     -4.415572     3.667433    -2.948122
