32
Energy = -1142.560024809 Hartree (EUMP2 CORRECTED)
O      1.404495     0.078122     0.182832
C      1.971446     1.318551    -0.285390
H      2.985894     1.092943    -0.629513
H      2.012380     2.050615     0.532599
C     -0.035835     0.181341     0.053175
H     -0.377568    -0.716088    -0.476950
H     -0.498166     0.228863     1.044437
C      1.014782     1.781126    -1.371107
H      1.155117     1.180167    -2.280203
H      1.084953     2.843349    -1.608763
C     -0.335975     1.465551    -0.724485
H     -1.148102     1.347963    -1.450409
O     -0.685846     2.473835     0.226558
P     -1.581697     3.792364    -0.307317
O     -2.139580     4.449942     0.922460
O     -2.395986     3.357786    -1.511732
O     -0.300656     4.736607    -0.890496
C     -0.484953     5.348171    -2.162857
H     -0.812440     4.620317    -2.916577
H     -1.271979     6.112204    -2.079300
C      0.827201     6.021429    -2.594540
H      0.555271     6.898679    -3.197801
O      1.605898     6.536639    -1.508719
C      2.571074     5.524384    -1.190142
H      3.347955     6.006196    -0.588881
H      2.091645     4.728433    -0.608924
C      3.052927     5.033420    -2.556843
H      3.492792     4.030041    -2.516911
H      3.808867     5.723754    -2.948388
C      1.765725     5.092199    -3.405462
H      1.320950     4.098645    -3.519668
H      1.952911     5.487491    -4.409392
