32
Energy = -1142.567012978 Hartree (EUMP2 CORRECTED)
O     -0.908637     0.370392    -1.511890
C      0.085146     1.299913    -1.988826
H     -0.131423     1.479895    -3.046197
H      1.088265     0.868805    -1.882992
C     -0.801860     0.437878    -0.076341
H     -1.723725     0.017010     0.334528
H      0.047858    -0.145577     0.282739
C     -0.077184     2.523059    -1.089537
H     -0.790268     3.232761    -1.526315
H      0.864562     3.040679    -0.892234
C     -0.631464     1.942543     0.236119
H     -1.611843     2.380002     0.455942
O      0.170036     2.305311     1.364728
P      1.455997     1.413564     1.927531
O      1.003784     0.074531     2.470699
O      2.337698     2.362030     2.702560
O      2.137414     1.130148     0.403099
C      3.048218     0.038995     0.279571
H      3.187462    -0.475852     1.240209
H      2.630112    -0.683484    -0.436349
C      4.375365     0.557379    -0.242482
H      5.059146    -0.293635    -0.380686
O      4.194917     1.136896    -1.560719
C      4.229277     2.565455    -1.405718
H      4.465263     2.985636    -2.389076
H      3.251856     2.928788    -1.065364
C      5.295341     2.796123    -0.343950
H      5.230403     3.786646     0.119852
H      6.290678     2.679467    -0.791239
C      4.987163     1.662549     0.642875
H      4.259643     1.996769     1.390628
H      5.881591     1.305642     1.166153
