32
Energy = -1142.571313202 Hartree (EUMP2 CORRECTED)
O      0.523198    -0.496745     0.727592
C      1.473524     0.163694    -0.138101
H      2.186791    -0.599602    -0.464800
H      2.002881     0.949664     0.416112
C     -0.742286     0.202920     0.617701
H     -1.503443    -0.534918     0.332369
H     -1.001991     0.653707     1.580420
C      0.627291     0.763736    -1.248520
H      0.309172    -0.019868    -1.949487
H      1.100772     1.579301    -1.800825
C     -0.565105     1.282785    -0.447978
H     -1.459610     1.422587    -1.063689
O     -0.207555     2.499177     0.209938
P     -0.685650     3.947210    -0.518261
O     -1.717092     4.596091     0.379190
O     -0.878018     3.701358    -1.994906
O      0.757684     4.764557    -0.343543
C      1.145676     5.188922     0.965866
H      2.066346     4.656693     1.238647
H      0.359632     4.961291     1.698216
C      1.400760     6.686377     0.955578
H      1.713382     6.993381     1.964070
O      2.509743     7.018237     0.087510
C      1.944114     7.400669    -1.180363
H      2.717538     7.966327    -1.710355
H      1.668680     6.507576    -1.751373
C      0.715224     8.222594    -0.805604
H     -0.024509     8.263806    -1.612530
H      1.019690     9.247127    -0.558862
C      0.186772     7.491035     0.440571
H     -0.634738     6.811523     0.196393
H     -0.171944     8.192857     1.201925
