32
Energy = -1142.562140759 Hartree (EUMP2 CORRECTED)
O      1.640156     0.339412     0.030805
C      1.959232     1.483609    -0.788421
H      2.790021     1.187539    -1.436945
H      2.275723     2.320879    -0.151213
C      0.233869     0.421016     0.374169
H     -0.225423    -0.535551     0.094741
H      0.123631     0.586525     1.450954
C      0.666161     1.807766    -1.517181
H      0.498876     1.076066    -2.319331
H      0.609842     2.818774    -1.930128
C     -0.361901     1.595025    -0.403302
H     -1.365946     1.390290    -0.789773
O     -0.416292     2.715241     0.491052
P     -1.345296     4.041385    -0.001753
O     -1.586019     4.842180     1.253019
O     -2.395909     3.569269    -0.974158
O     -0.191602     4.848406    -0.929387
C      0.982932     5.245668    -0.233847
H      0.779204     6.191518     0.289847
H      1.263004     4.508841     0.531054
C      2.157343     5.412518    -1.223345
H      2.786594     4.516917    -1.234334
O      1.741157     5.597605    -2.582097
C      1.208501     6.930723    -2.636665
H      1.299613     7.263810    -3.674735
H      0.150633     6.904225    -2.351130
C      2.052812     7.762277    -1.641628
H      1.408997     8.283173    -0.925839
H      2.662650     8.517227    -2.149217
C      2.930335     6.703663    -0.940552
H      3.064749     6.899008     0.129991
H      3.919933     6.646296    -1.407531
