32
Energy = -1142.553400992 Hartree (EUMP2 CORRECTED)
O      0.825296    -0.448695    -0.034598
C      1.406240     0.453969    -0.993959
H      2.069657    -0.142602    -1.628100
H      1.996227     1.224273    -0.478170
C     -0.411688     0.153276     0.421851
H     -1.168175    -0.639572     0.424833
H     -0.286163     0.551441     1.434731
C      0.208828     1.059694    -1.707379
H     -0.214743     0.326466    -2.406407
H      0.397252     1.991812    -2.246061
C     -0.755561     1.296174    -0.543002
H     -1.800225     1.279554    -0.867563
O     -0.475100     2.527394     0.130589
P     -1.180173     3.934021    -0.511905
O     -1.866586     4.640315     0.628063
O     -1.852938     3.564859    -1.814684
O      0.212815     4.793523    -0.903451
C      1.516152     4.484956    -0.428504
H      1.748205     5.102094     0.451164
H      1.581127     3.431891    -0.139464
C      2.515041     4.818666    -1.533817
H      1.967338     5.308148    -2.354575
O      3.517139     5.727554    -1.018976
C      4.547859     5.776612    -2.011224
H      4.332978     6.585597    -2.725497
H      5.482759     6.007998    -1.492183
C      4.550934     4.398557    -2.718070
H      5.498506     3.866097    -2.584706
H      4.386276     4.515403    -3.794879
C      3.372296     3.669452    -2.056957
H      3.711629     3.072260    -1.202652
H      2.825979     3.012743    -2.742598
