32
Energy = -1142.563275327 Hartree (EUMP2 CORRECTED)
O      2.004477    -0.049291     0.380800
C      2.562575     1.274394     0.315834
H      3.639212     1.163109     0.150795
H      2.383707     1.812326     1.256586
C      0.612510     0.033490    -0.042366
H      0.484028    -0.670850    -0.874820
H     -0.051094    -0.234066     0.779067
C      1.810450     1.934542    -0.828807
H      2.154820     1.528584    -1.789586
H      1.872348     3.026573    -0.841505
C      0.386088     1.469894    -0.532457
H     -0.258729     1.473460    -1.423843
O     -0.152352     2.396093     0.409198
P     -1.188290     2.117285     1.707392
O     -0.527556     2.753869     2.908822
O     -1.736193     0.711945     1.673632
O     -2.443588     3.101651     1.207318
C     -2.249953     4.516987     1.235436
H     -2.291415     4.890810     0.203668
H     -1.276537     4.768604     1.677738
C     -3.352990     5.159273     2.059339
H     -3.197654     6.247841     2.063226
O     -4.647342     4.954693     1.446167
C     -5.228732     3.800008     2.081189
H     -6.304895     3.842898     1.883245
H     -4.800570     2.885391     1.657722
C     -4.857972     3.958722     3.552309
H     -4.876850     3.006882     4.094096
H     -5.559502     4.649472     4.036025
C     -3.446575     4.568299     3.483544
H     -2.669073     3.812383     3.625636
H     -3.303533     5.345883     4.242400
