32
Energy = -1142.570002366 Hartree (EUMP2 CORRECTED)
O      1.229829     0.152829     0.339375
C      1.776422     1.254110    -0.419023
H      2.598238     0.848302    -1.017311
H      2.160675     2.026579     0.260112
C     -0.157098     0.463106     0.615601
H     -0.755171    -0.403439     0.306371
H     -0.291975     0.648209     1.686851
C      0.601905     1.781642    -1.223901
H      0.378044     1.095262    -2.052631
H      0.722559     2.801916    -1.598146
C     -0.516169     1.721617    -0.180324
H     -1.519033     1.642080    -0.608547
O     -0.444834     2.823112     0.732138
P     -0.990777     4.356788     0.303863
O     -0.342168     4.751302    -1.009189
O     -0.964570     5.158323     1.572461
O     -2.616117     4.047625    -0.032468
C     -3.041597     3.689363    -1.343150
H     -2.243865     3.209055    -1.918954
H     -3.340065     4.597271    -1.893745
C     -4.242130     2.767478    -1.215445
H     -4.640915     2.565596    -2.219749
O     -3.850318     1.479059    -0.685446
C     -4.142506     1.494702     0.724372
H     -4.174107     0.450578     1.051440
H     -3.357985     2.038189     1.264180
C     -5.481832     2.217402     0.805393
H     -5.688786     2.617622     1.803973
H     -6.288027     1.526346     0.531195
C     -5.320165     3.319504    -0.254006
H     -4.960699     4.243538     0.206920
H     -6.258161     3.531002    -0.779553
