32
Energy = -1142.570658472 Hartree (EUMP2 CORRECTED)
O      1.679594     0.124757    -0.106956
C      1.863570     1.097738    -1.159206
H      2.549355     0.651312    -1.886483
H      2.307012     2.014880    -0.750753
C      0.353793     0.312336     0.446276
H     -0.171567    -0.649332     0.380216
H      0.430531     0.623378     1.493054
C      0.463706     1.363639    -1.684933
H      0.125878     0.523992    -2.307595
H      0.361345     2.301151    -2.236272
C     -0.335389     1.395171    -0.381298
H     -1.405107     1.213985    -0.530801
O     -0.150698     2.635868     0.312993
P     -1.044510     3.955825    -0.196011
O     -1.056625     4.961292     0.928894
O     -2.283017     3.467283    -0.915171
O      0.088043     4.468752    -1.339071
C     -0.047058     5.790953    -1.862952
H     -0.681789     6.411911    -1.218981
H     -0.511617     5.721760    -2.858463
C      1.332898     6.455813    -1.973934
H      1.373588     7.076739    -2.877338
O      1.574839     7.363100    -0.881391
C      1.908335     6.517016     0.246374
H      2.484433     7.141795     0.935883
H      0.989330     6.171173     0.732815
C      2.704476     5.333107    -0.339430
H      2.299666     4.386773     0.027278
H      3.767242     5.389061    -0.075716
C      2.500427     5.468793    -1.862215
H      2.289217     4.509646    -2.343449
H      3.381322     5.919313    -2.335375
