32
Energy = -1142.565832214 Hartree (EUMP2 CORRECTED)
O      1.632973     0.293503     0.575814
C      2.040406     1.437087    -0.201080
H      2.957065     1.153402    -0.728278
H      2.241132     2.291886     0.458102
C      0.190717     0.349621     0.727737
H     -0.209711    -0.614037     0.387088
H     -0.069786     0.514510     1.777538
C      0.850079     1.724002    -1.102853
H      0.803767     0.987030    -1.915616
H      0.839176     2.736200    -1.517115
C     -0.309711     1.519385    -0.126982
H     -1.258233     1.293383    -0.622356
O     -0.418596     2.686829     0.681890
P     -1.864770     3.525718     0.927428
O     -1.587139     4.974200     0.604918
O     -2.497089     3.024800     2.200308
O     -2.798169     2.866458    -0.313830
C     -2.650777     3.426351    -1.616706
H     -1.623106     3.301760    -1.987314
H     -2.877789     4.501773    -1.599592
C     -3.607786     2.683959    -2.528301
H     -3.532310     3.099416    -3.543110
O     -3.215254     1.292308    -2.639954
C     -4.093090     0.532671    -1.791199
H     -4.047859    -0.504986    -2.136706
H     -3.759293     0.600523    -0.748435
C     -5.449300     1.200508    -1.977537
H     -6.158060     0.959872    -1.177363
H     -5.883081     0.891290    -2.936312
C     -5.059809     2.684938    -2.001693
H     -5.078089     3.098976    -0.989401
H     -5.720869     3.283712    -2.637989
