32
Energy = -1142.553472601 Hartree (EUMP2 CORRECTED)
O      1.659743     0.180436    -0.123756
C      2.031533     1.371913    -0.843556
H      2.865752     1.099334    -1.497592
H      2.362855     2.145184    -0.135917
C      0.279451     0.344711     0.286402
H     -0.235793    -0.594152     0.053026
H      0.227183     0.539407     1.363465
C      0.759726     1.787354    -1.564846
H      0.586258     1.113324    -2.414394
H      0.735389     2.819645    -1.925303
C     -0.294450     1.539438    -0.484497
H     -1.281892     1.339699    -0.911076
O     -0.389832     2.638812     0.434401
P     -1.362940     3.941176    -0.041950
O     -1.941680     4.495460     1.235744
O     -2.163376     3.541584    -1.256780
O     -0.183879     5.018388    -0.586120
C      1.123786     5.048848    -0.048122
H      1.214967     5.949128     0.580585
H      1.302515     4.179765     0.596003
C      2.198791     5.085785    -1.173215
H      2.789285     4.163905    -1.165042
O      1.659869     5.175482    -2.492750
C      1.266666     6.549066    -2.685350
H      1.450515     6.779154    -3.740003
H      0.199465     6.645128    -2.463151
C      2.137355     7.386090    -1.719005
H      1.511143     7.860107    -0.956139
H      2.691966     8.177921    -2.234311
C      3.067407     6.339296    -1.078933
H      3.359117     6.591749    -0.052919
H      3.975356     6.202174    -1.677778
