32
Energy = -1142.573323387 Hartree (EUMP2 CORRECTED)
O      0.730498     0.171933     1.629991
C      1.529493     1.340337     1.352850
H      2.550038     1.110116     1.674252
H      1.149683     2.201910     1.918408
C     -0.383350     0.174218     0.702635
H     -0.416488    -0.815805     0.231787
H     -1.318415     0.362786     1.239416
C      1.364829     1.563449    -0.141087
H      1.955038     0.825212    -0.700825
H      1.617280     2.568610    -0.484934
C     -0.129358     1.292100    -0.313911
H     -0.407863     0.992419    -1.330828
O     -0.881496     2.440768     0.089812
P     -1.478377     3.422650    -1.131520
O     -1.750905     4.778832    -0.532417
O     -2.475926     2.616957    -1.934257
O     -0.091512     3.496313    -2.093957
C      0.520658     4.758111    -2.364236
H      1.595543     4.664524    -2.152130
H      0.087719     5.533355    -1.718372
C      0.344189     5.138972    -3.823911
H      0.768289     6.143035    -3.968234
O      1.090939     4.276128    -4.704104
C      0.257191     3.131765    -4.999712
H      0.522657     2.817818    -6.015654
H      0.486886     2.325144    -4.295449
C     -1.204870     3.590060    -4.853953
H     -1.742591     2.962632    -4.138767
H     -1.729981     3.564036    -5.816212
C     -1.100710     5.031154    -4.316791
H     -1.826061     5.227053    -3.520597
H     -1.258566     5.761169    -5.119894
