32
Energy = -1142.564180494 Hartree (EUMP2 CORRECTED)
O      0.908139    -0.252051     0.702608
C      1.381716     0.447023    -0.462289
H      2.001191    -0.257977    -1.024985
H      1.994525     1.309667    -0.162453
C     -0.227791     0.500554     1.187311
H     -0.948456    -0.229154     1.570084
H      0.080231     1.177420     1.993554
C      0.106477     0.885847    -1.164409
H     -0.352925     0.021759    -1.661081
H      0.221392     1.689516    -1.896780
C     -0.768930     1.334675     0.012332
H     -1.829727     1.156082    -0.186483
O     -0.577876     2.714868     0.347416
P     -1.385857     3.855514    -0.609977
O     -1.777059     4.971261     0.324088
O     -2.322466     3.133235    -1.548081
O     -0.091621     4.391366    -1.553742
C      1.224071     4.379137    -1.014936
H      1.601202     3.352045    -0.927142
H      1.258529     4.841039    -0.019777
C      2.110293     5.131329    -1.998047
H      1.990935     6.212948    -1.859430
O      3.508443     4.838912    -1.720191
C      4.008793     4.037892    -2.798668
H      5.095036     4.169436    -2.820498
H      3.781998     2.972995    -2.626879
C      3.272061     4.556843    -4.024922
H      3.315668     3.870612    -4.878714
H      3.700205     5.519697    -4.329181
C      1.858148     4.730818    -3.460972
H      1.302242     3.787523    -3.496851
H      1.258974     5.476259    -3.990244
