32
Energy = -1142.567692017 Hartree (EUMP2 CORRECTED)
O      0.988818    -0.214090    -0.054730
C      1.771594     0.888883    -0.565001
H      2.548652     0.454420    -1.201109
H      2.235940     1.437070     0.265072
C     -0.335280     0.290333     0.237145
H     -1.055745    -0.380389    -0.248453
H     -0.500683     0.292409     1.320248
C      0.762592     1.759615    -1.291567
H      0.476854     1.289956    -2.242644
H      1.069951     2.792222    -1.471134
C     -0.409198     1.719344    -0.311771
H     -1.369177     1.937530    -0.797508
O     -0.181468     2.613395     0.784634
P     -0.688807     4.212025     0.576386
O     -0.498332     4.613398    -0.867292
O     -0.144305     4.954906     1.766131
O     -2.355081     4.000860     0.754504
C     -2.902837     2.979559     1.574568
H     -2.772714     3.226779     2.638100
H     -2.417616     2.010683     1.386902
C     -4.382379     2.865354     1.249541
H     -4.802628     2.029214     1.826211
O     -5.106998     4.039039     1.679167
C     -5.255501     4.883500     0.524448
H     -6.062184     5.587720     0.750684
H     -4.321494     5.423298     0.332729
C     -5.573610     3.904683    -0.600345
H     -5.385834     4.323049    -1.595346
H     -6.626407     3.603549    -0.538753
C     -4.644818     2.725975    -0.268546
H     -3.701378     2.824206    -0.812765
H     -5.096367     1.758163    -0.514258
