32
Energy = -1142.560150927 Hartree (EUMP2 CORRECTED)
O      1.305158     0.088665     0.324634
C      1.751896     1.248684    -0.408117
H      2.623233     0.937451    -0.992438
H      2.036259     2.052983     0.282798
C     -0.097218     0.287174     0.617426
H     -0.619098    -0.640125     0.350823
H     -0.234336     0.500860     1.683339
C      0.545408     1.662006    -1.233389
H      0.409468     0.967455    -2.074554
H      0.600858     2.695858    -1.586814
C     -0.583181     1.485102    -0.210337
H     -1.564546     1.284158    -0.646818
O     -0.659682     2.594799     0.684469
P     -1.101435     4.177450     0.314139
O     -0.002621     4.745272    -0.564491
O     -1.595632     4.771970     1.601211
O     -2.471540     4.054404    -0.663217
C     -2.557161     3.398339    -1.917373
H     -1.698126     2.754821    -2.123286
H     -2.589348     4.161445    -2.714485
C     -3.849871     2.597437    -1.959166
H     -3.975109     2.180786    -2.968996
O     -3.789351     1.459813    -1.071276
C     -4.430428     1.849791     0.160657
H     -4.687021     0.924674     0.686055
H     -3.746248     2.452684     0.767454
C     -5.635382     2.659251    -0.304347
H     -6.024496     3.321676     0.476291
H     -6.436081     1.978700    -0.618003
C     -5.071712     3.431781    -1.508854
H     -4.743597     4.429253    -1.204717
H     -5.806953     3.533742    -2.314978
