32
Energy = -1142.567539964 Hartree (EUMP2 CORRECTED)
O      0.429350    -0.337608     0.499891
C      1.608789     0.420131     0.170307
H      2.390391    -0.303085    -0.081416
H      1.927348     1.025957     1.029716
C     -0.706341     0.538594     0.299624
H     -1.462829    -0.037299    -0.245744
H     -1.108422     0.864218     1.264946
C      1.166571     1.312439    -0.978071
H      1.080214     0.722010    -1.900280
H      1.818717     2.172638    -1.148081
C     -0.213592     1.762362    -0.486412
H     -0.909124     2.039654    -1.286781
O     -0.066172     2.850341     0.424890
P     -0.425030     4.410464    -0.098266
O     -0.344848     5.284755     1.117680
O     -1.605280     4.309379    -1.047493
O      0.930252     4.766709    -1.039279
C      0.918889     4.447485    -2.431385
H      0.171039     3.685467    -2.676136
H      1.918605     4.074543    -2.686859
C      0.659851     5.707146    -3.245266
H      1.166797     6.548697    -2.751183
O      1.265404     5.508056    -4.560778
C      0.395983     6.035225    -5.579936
H      1.001036     6.638182    -6.267538
H     -0.042260     5.197662    -6.142128
C     -0.681130     6.826932    -4.844471
H     -1.619257     6.887287    -5.408172
H     -0.336195     7.848914    -4.643105
C     -0.796974     6.034980    -3.543544
H     -1.360417     5.106742    -3.690247
H     -1.276151     6.572103    -2.721395
