32
Energy = -1142.571042291 Hartree (EUMP2 CORRECTED)
O      1.375505    -0.169658     0.169811
C      1.960221     0.835625    -0.686354
H      2.758039     0.344045    -1.251982
H      2.383104     1.648013    -0.080753
C     -0.004822     0.201720     0.405632
H     -0.626625    -0.663778     0.144075
H     -0.146598     0.456978     1.460788
C      0.800301     1.340677    -1.526864
H      0.541138     0.600267    -2.295911
H      0.965568     2.318161    -1.985982
C     -0.308754     1.413146    -0.475972
H     -1.317326     1.394261    -0.902762
O     -0.156999     2.584175     0.338233
P     -0.904301     3.986982    -0.165610
O     -0.885036     4.957431     0.991018
O     -2.150697     3.644356    -0.953372
O      0.302941     4.450054    -1.256853
C      0.059156     5.673433    -1.955693
H     -0.836718     6.179416    -1.572089
H     -0.102206     5.459519    -3.019749
C      1.253032     6.603970    -1.751698
H      2.067596     6.323135    -2.432370
O      0.881960     7.959725    -2.122501
C      0.730797     8.698127    -0.898476
H      0.817023     9.758685    -1.154756
H     -0.258779     8.510428    -0.454979
C      1.834368     8.156157    -0.002879
H      1.684132     8.395029     1.056076
H      2.799763     8.567923    -0.323535
C      1.733625     6.652269    -0.289633
H      0.993016     6.179923     0.364965
H      2.683197     6.124866    -0.156983
