32
Energy = -1142.573113414 Hartree (EUMP2 CORRECTED)
O      1.065270    -0.328218     0.834375
C      1.900670     0.408243    -0.076907
H      2.694350    -0.271760    -0.403439
H      2.344074     1.276497     0.428848
C     -0.275086     0.230338     0.764940
H     -0.962870    -0.599188     0.557195
H     -0.534020     0.701136     1.717852
C      0.952314     0.854871    -1.178589
H      0.706576     0.005522    -1.829503
H      1.320786     1.689160    -1.782232
C     -0.267844     1.270103    -0.362182
H     -1.201989     1.283753    -0.935064
O      0.001585     2.575233     0.153070
P     -1.334292     3.494284     0.625850
O     -1.505031     3.346818     2.124561
O     -2.449960     3.267584    -0.365769
O     -0.677493     4.984894     0.295740
C      0.193499     5.588059     1.257651
H      1.148813     5.800220     0.759803
H      0.358974     4.911060     2.105562
C     -0.414029     6.884533     1.765493
H      0.246941     7.292587     2.543393
O     -0.474681     7.895776     0.740572
C     -1.710945     7.706037     0.014073
H     -2.036947     8.705404    -0.296125
H     -1.521102     7.089143    -0.869920
C     -2.693284     7.006764     0.972812
H     -3.052514     6.072566     0.535241
H     -3.559253     7.641539     1.195040
C     -1.860617     6.731437     2.240395
H     -2.048277     5.735775     2.654342
H     -2.064377     7.487817     3.008091
