32
Energy = -1142.568570295 Hartree (EUMP2 CORRECTED)
O      0.655456     1.019254    -2.138709
C      1.586685     2.117449    -2.276479
H      1.416211     2.548896    -3.267807
H      2.613472     1.727690    -2.232402
C      0.376252     0.931537    -0.725832
H     -0.493340     0.282958    -0.606574
H      1.231606     0.516491    -0.183385
C      1.297094     3.082333    -1.115271
H      2.136683     3.148529    -0.417233
H      1.031691     4.090100    -1.451795
C      0.135233     2.404406    -0.367962
H     -0.824867     2.697283    -0.812278
O      0.052243     2.811548     0.996456
P      0.892804     2.001178     2.203605
O      0.424317     2.613501     3.499385
O      2.332676     1.830265     1.781100
O      0.225358     0.467281     2.038816
C     -1.107886     0.259936     2.511328
H     -1.740024    -0.013706     1.654808
H     -1.502449     1.171349     2.980399
C     -1.106270    -0.873588     3.522313
H     -2.139949    -1.052054     3.852484
O     -0.674687    -2.108504     2.903920
C      0.723357    -2.263623     3.212967
H      0.963127    -3.320583     3.057894
H      1.325351    -1.635410     2.547381
C      0.833327    -1.801635     4.661439
H      1.853959    -1.514480     4.936993
H      0.503652    -2.606580     5.329888
C     -0.144700    -0.616032     4.703574
H      0.370934     0.338176     4.563966
H     -0.689227    -0.566627     5.653250
