32
Energy = -1142.567253980 Hartree (EUMP2 CORRECTED)
O      1.184131     0.208001     0.769613
C      1.797010     0.896863    -0.340122
H      2.550246     0.219937    -0.756033
H      2.285325     1.814908     0.012642
C     -0.171453     0.704596     0.904040
H     -0.839320    -0.166038     0.898227
H     -0.275589     1.248099     1.848579
C      0.642850     1.217535    -1.275390
H      0.326468     0.308568    -1.804710
H      0.841316     2.010999    -2.001029
C     -0.436298     1.639819    -0.275622
H     -1.449796     1.547830    -0.680386
O     -0.226643     2.980442     0.183387
P     -0.830108     4.230013    -0.787196
O     -0.874863     5.429251     0.129601
O     -1.967744     3.697815    -1.618968
O      0.468294     4.424727    -1.840628
C      1.702360     4.777662    -1.231120
H      1.538394     5.070403    -0.186717
H      2.383451     3.911240    -1.237263
C      2.374212     5.915517    -1.996243
H      2.700400     5.567214    -2.982429
O      1.503946     7.020904    -2.242976
C      1.358716     7.701842    -0.979719
H      1.127924     8.744402    -1.217936
H      0.527017     7.255547    -0.422951
C      2.711993     7.524679    -0.250339
H      2.558737     7.119249     0.755057
H      3.249004     8.473648    -0.145209
C      3.489896     6.535396    -1.146068
H      4.053071     5.790877    -0.569775
H      4.193032     7.067262    -1.796453
