32
Energy = -1142.571223136 Hartree (EUMP2 CORRECTED)
O      1.108379     0.181886    -1.524608
C      1.230926     1.521488    -2.021414
H      1.605202     1.455604    -3.047322
H      1.940044     2.096378    -1.406285
C      0.298690     0.294902    -0.325458
H     -0.264276    -0.634679    -0.222210
H      0.950550     0.427982     0.541214
C     -0.179519     2.075693    -1.883607
H     -0.813911     1.650172    -2.670826
H     -0.249370     3.167239    -1.905497
C     -0.597560     1.540740    -0.511744
H     -1.658535     1.269376    -0.468022
O     -0.345407     2.575042     0.444039
P     -0.553130     2.224212     2.071287
O     -1.184433     0.849237     2.182293
O     -1.093876     3.472474     2.717816
O      1.060476     2.108030     2.534128
C      1.561882     0.903882     3.116856
H      2.495378     0.644591     2.598421
H      0.833677     0.090881     2.994390
C      1.861747     1.096474     4.594349
H      2.166308     0.124006     5.007306
O      2.981411     1.975077     4.815300
C      2.469202     3.328229     4.826814
H      3.122916     3.893324     5.500775
H      2.530243     3.747337     3.817343
C      1.007148     3.248686     5.301189
H      0.336570     3.726514     4.582694
H      0.878209     3.724782     6.280510
C      0.712400     1.737123     5.376784
H     -0.266302     1.485687     4.955689
H      0.746613     1.382611     6.414117
