32
Energy = -1142.566836177 Hartree (EUMP2 CORRECTED)
O      2.068889     0.513099    -0.939340
C      1.621323     1.479856    -1.917450
H      1.942775     1.111161    -2.896735
H      2.082431     2.456037    -1.720689
C      1.130083     0.528141     0.163602
H      0.748696    -0.493826     0.290234
H      1.639407     0.850997     1.077212
C      0.116421     1.550620    -1.727164
H     -0.363971     0.660040    -2.155174
H     -0.342328     2.453715    -2.136288
C      0.017221     1.507253    -0.201608
H     -0.970598     1.197834     0.156730
O      0.365107     2.770502     0.377553
P     -0.795761     3.978370     0.379430
O     -0.358864     5.017128     1.384919
O     -2.158296     3.324986     0.353249
O     -0.472813     4.598015    -1.159107
C     -0.402700     6.018199    -1.292690
H     -0.536068     6.227326    -2.359540
H     -1.213165     6.499812    -0.731302
C      0.953728     6.575405    -0.859469
H      1.619767     5.727488    -0.635818
O      1.508538     7.342064    -1.962729
C      2.606951     8.088157    -1.419918
H      3.543578     7.535759    -1.587471
H      2.657306     9.032310    -1.972525
C      2.325627     8.269598     0.091531
H      2.309663     9.324844     0.386009
H      3.097916     7.772163     0.688780
C      0.970114     7.577729     0.284249
H      0.146255     8.288489     0.138002
H      0.837499     7.080819     1.247297
