32
Energy = -1142.561430530 Hartree (EUMP2 CORRECTED)
O      1.599120     0.393950     1.066318
C      2.068067     0.994371    -0.155693
H      2.899269     0.379168    -0.514975
H      2.430779     2.012962     0.040519
C      0.191024     0.716136     1.206673
H     -0.340101    -0.228497     1.375978
H      0.046717     1.383988     2.061486
C      0.845995     1.002398    -1.058625
H      0.647289    -0.019373    -1.408839
H      0.903911     1.658777    -1.927454
C     -0.257558     1.410314    -0.083592
H     -1.243363     1.080783    -0.425626
O     -0.310581     2.817576     0.192762
P     -1.297579     3.793727    -0.781997
O     -1.864723     4.866329     0.110173
O     -2.118973     2.866407    -1.650712
O     -0.173847     4.581825    -1.749732
C      1.186092     4.262609    -1.952855
H      1.319367     3.770983    -2.928184
H      1.561308     3.607769    -1.157117
C      1.984079     5.557027    -1.918315
H      3.050313     5.319364    -2.048297
O      1.634377     6.413312    -3.028733
C      0.697169     7.386060    -2.527721
H      0.697462     8.217388    -3.239978
H     -0.302076     6.942470    -2.458673
C      1.240754     7.738634    -1.148791
H      0.485665     8.193810    -0.499087
H      2.084767     8.431997    -1.251661
C      1.709600     6.369718    -0.632863
H      0.911614     5.893874    -0.055042
H      2.604213     6.444179    -0.004377
