32
Energy = -1142.566567602 Hartree (EUMP2 CORRECTED)
O      1.525553     0.294792     0.237489
C      1.849833     1.292392    -0.756186
H      2.653320     0.877203    -1.373441
H      2.204136     2.207757    -0.263505
C      0.114674     0.414065     0.548851
H     -0.354348    -0.557487     0.343517
H     -0.006978     0.670724     1.605859
C      0.547301     1.544860    -1.495056
H      0.335960     0.716059    -2.184516
H      0.512753     2.493132    -2.036269
C     -0.454560     1.517620    -0.338901
H     -1.478857     1.319669    -0.673347
O     -0.424076     2.727546     0.425796
P     -1.174869     4.088366    -0.241378
O     -1.393188     5.041431     0.906544
O     -2.217261     3.618168    -1.223889
O      0.109322     4.668436    -1.167294
C      1.139276     5.305799    -0.424919
H      0.724823     6.161988     0.123300
H      1.570138     4.620347     0.323096
C      2.250458     5.737303    -1.371043
H      2.760217     4.859825    -1.782768
O      1.775793     6.474817    -2.507475
C      1.443297     7.780472    -2.018620
H      1.519173     8.463475    -2.869686
H      0.409213     7.787250    -1.651154
C      2.454556     8.083290    -0.888624
H      1.940119     8.403640     0.022953
H      3.152099     8.878724    -1.171303
C      3.185061     6.738781    -0.682250
H      3.352334     6.503595     0.375393
H      4.155805     6.742138    -1.189643
