32
Energy = -1142.561643082 Hartree (EUMP2 CORRECTED)
O      1.526130    -0.419607    -0.373547
C      1.837356     0.468857    -1.478827
H      1.304084     0.103775    -2.368281
H      2.914257     0.411159    -1.673091
C      0.753795     0.323389     0.591260
H     -0.006568    -0.346068     1.003908
H      1.391560     0.698187     1.403274
C      1.374624     1.861042    -1.063853
H      1.120466     2.503179    -1.910820
H      2.130550     2.384321    -0.474849
C      0.178750     1.512772    -0.173101
H     -0.654815     1.172755    -0.809437
O     -0.350321     2.455580     0.740135
P      0.082311     4.068398     0.978446
O      1.062617     4.479417    -0.102808
O      0.300392     4.280269     2.449413
O     -1.402084     4.753089     0.626318
C     -1.836051     4.745939    -0.733033
H     -2.773356     4.175973    -0.793828
H     -1.082372     4.280042    -1.383627
C     -2.072607     6.170168    -1.207549
H     -2.330896     6.141546    -2.275796
O     -3.201772     6.781071    -0.554614
C     -2.727179     7.354078     0.685723
H     -3.344643     8.241391     0.865590
H     -2.870751     6.633275     1.496627
C     -1.232668     7.671036     0.488843
H     -0.634854     7.176126     1.257349
H     -1.039770     8.749229     0.538471
C     -0.899453     7.105300    -0.905796
H      0.056642     6.572546    -0.917853
H     -0.881085     7.907016    -1.654159
