32
Energy = -1142.571578377 Hartree (EUMP2 CORRECTED)
O      1.843214     0.320469    -0.235679
C      1.887284     1.305031    -1.294349
H      2.554132     0.909721    -2.067442
H      2.287300     2.252111    -0.910134
C      0.532809     0.382580     0.379196
H      0.074684    -0.611970     0.292895
H      0.635275     0.655032     1.434280
C      0.441423     1.472326    -1.727202
H      0.121657     0.612484    -2.331882
H      0.242965     2.400423    -2.267727
C     -0.268622     1.440741    -0.373088
H     -1.335577     1.205701    -0.453893
O     -0.097218     2.672108     0.337218
P     -1.030491     3.985159    -0.126947
O     -1.005396     4.978313     1.010655
O     -2.286016     3.459182    -0.783630
O      0.002944     4.556100    -1.338906
C      0.278352     5.956821    -1.407701
H     -0.330649     6.519821    -0.692336
H      0.057701     6.299587    -2.426627
C      1.757903     6.152927    -1.114867
H      2.344361     5.491663    -1.764026
O      2.131842     7.518728    -1.473965
C      2.342655     8.250087    -0.258527
H      2.989434     9.098939    -0.502873
H      1.386308     8.629844     0.134280
C      2.951995     7.231201     0.691143
H      2.892586     7.531407     1.743682
H      4.006440     7.075098     0.431694
C      2.111071     5.990077     0.376076
H      1.191732     5.958619     0.971159
H      2.644892     5.053368     0.565804
