32
Energy = -1142.567687022 Hartree (EUMP2 CORRECTED)
O      1.738266    -0.414744    -0.811443
C      2.467686     0.801247    -1.079825
H      3.234498     0.555699    -1.820432
H      2.937859     1.173294    -0.160334
C      0.573862     0.028908    -0.089873
H     -0.180580    -0.757846    -0.179855
H      0.808893     0.194108     0.968811
C      1.401202     1.777441    -1.562039
H      1.663120     2.820312    -1.372450
H      1.207709     1.622692    -2.630729
C      0.153352     1.365179    -0.745269
H     -0.697611     1.206777    -1.417150
O     -0.344202     2.328237     0.187848
P      0.595451     2.907394     1.466983
O      1.910971     3.403403     0.891863
O      0.521799     1.969183     2.643233
O     -0.384440     4.202825     1.808935
C     -0.458046     5.265877     0.856140
H     -1.487096     5.312853     0.477728
H      0.230064     5.088314     0.018590
C     -0.093157     6.577506     1.530365
H     -0.159002     7.381001     0.782635
O     -1.053377     6.922860     2.554688
C     -0.516788     6.445039     3.803203
H     -1.042055     6.986839     4.596579
H     -0.693419     5.368566     3.898637
C      0.973417     6.760114     3.713782
H      1.575287     6.124474     4.372172
H      1.145187     7.807924     3.988743
C      1.285811     6.525058     2.224697
H      1.755249     5.551894     2.054772
H      1.954690     7.296444     1.826425
