32
Energy = -1142.567714828 Hartree (EUMP2 CORRECTED)
O      1.755930    -0.473207    -0.662697
C      2.513665     0.710588    -0.990149
H      3.247901     0.419600    -1.747111
H      3.021899     1.087620    -0.093464
C      0.635315     0.035514     0.082395
H     -0.127968    -0.747077     0.100453
H      0.928792     0.274452     1.110603
C      1.465816     1.713833    -1.464199
H      1.735991     2.745325    -1.226823
H      1.294216     1.613657    -2.542741
C      0.193324     1.305896    -0.677664
H     -0.613377     1.054334    -1.375118
O     -0.364988     2.348670     0.124706
P      0.369851     2.800716     1.575444
O      1.832589     3.075774     1.268699
O     -0.073584     1.904854     2.701681
O     -0.455320     4.231678     1.738584
C     -0.180452     5.281592     0.807951
H     -1.099554     5.484237     0.243596
H      0.616779     4.988011     0.111652
C      0.251384     6.528607     1.560728
H      0.453379     7.322584     0.827346
O     -0.818249     7.033261     2.392256
C     -0.609283     6.490267     3.710140
H     -1.182634     7.117419     4.400673
H     -0.968568     5.456677     3.750000
C      0.901770     6.563585     3.909250
H      1.260046     5.845063     4.654281
H      1.181706     7.572583     4.235626
C      1.449905     6.270600     2.500541
H      1.789922     5.235770     2.401408
H      2.291125     6.927296     2.251272
