32
Energy = -1142.561970035 Hartree (EUMP2 CORRECTED)
O      2.200214     0.781441    -0.047013
C      1.499213     0.415435    -1.260906
H      1.845293    -0.584463    -1.543337
H      1.751130     1.127068    -2.057334
C      1.291229     1.524893     0.798586
H      1.111163     0.940538     1.712332
H      1.744929     2.486489     1.058520
C      0.021435     0.496513    -0.915885
H     -0.294353    -0.395832    -0.357890
H     -0.627426     0.651204    -1.782321
C      0.009790     1.721760     0.000750
H     -0.880825     1.790270     0.639697
O      0.163461     2.922005    -0.755526
P     -1.247850     3.530650    -1.493489
O     -2.248589     3.839745    -0.410696
O     -1.550535     2.659714    -2.697110
O     -0.534353     4.948602    -1.977738
C      0.351810     4.861748    -3.092202
H      0.740773     3.840515    -3.183570
H     -0.206444     5.079917    -4.012901
C      1.525494     5.868777    -2.933741
H      1.465190     6.642192    -3.708149
O      1.524347     6.577802    -1.693302
C      2.067901     5.682423    -0.694936
H      2.666755     6.304687    -0.020118
H      1.245566     5.213309    -0.147380
C      2.902309     4.632957    -1.459245
H      2.419682     3.654779    -1.382222
H      3.922340     4.543456    -1.068841
C      2.874176     5.148908    -2.907696
H      2.956465     4.347551    -3.651386
H      3.677920     5.874529    -3.084263
