32
Energy = -1142.570915990 Hartree (EUMP2 CORRECTED)
O      1.574908     0.056965     0.102171
C      1.945747     1.054229    -0.875646
H      2.700015     0.596475    -1.523506
H      2.372276     1.933065    -0.374937
C      0.204497     0.312196     0.496314
H     -0.361723    -0.615216     0.340956
H      0.169318     0.597323     1.552712
C      0.642730     1.412006    -1.568898
H      0.347994     0.609690    -2.258995
H      0.661420     2.369752    -2.094127
C     -0.316164     1.451574    -0.378234
H     -1.366712     1.334763    -0.664868
O     -0.155457     2.664934     0.369023
P     -0.978505     4.018935    -0.155057
O     -1.003260     5.016148     0.978935
O     -2.211195     3.586177    -0.919609
O      0.195417     4.525781    -1.265219
C      0.060318     5.869425    -1.738020
H     -0.755952     6.397479    -1.230638
H     -0.147407     5.848610    -2.815697
C      1.385269     6.570955    -1.481626
H      2.197551     5.966700    -1.899731
O      1.403297     7.834956    -2.207840
C      1.056847     8.860209    -1.267667
H      1.383576     9.812417    -1.697078
H     -0.032912     8.893197    -1.113587
C      1.778278     8.452650     0.008143
H      1.367685     8.929108     0.905641
H      2.837813     8.723127    -0.074426
C      1.593204     6.927820     0.006389
H      0.719843     6.610175     0.587046
H      2.460698     6.408665     0.426766
