32
Energy = -1142.571101709 Hartree (EUMP2 CORRECTED)
O      1.458922     0.002294    -0.223487
C      1.733309     1.008452    -1.219457
H      2.441364     0.572024    -1.932051
H      2.183191     1.891162    -0.747284
C      0.085223     0.160307     0.221347
H     -0.451878    -0.771203    -0.003918
H      0.061515     0.339826     1.296715
C      0.372501     1.348043    -1.808513
H      0.050675     0.558733    -2.500920
H      0.332696     2.319322    -2.309385
C     -0.497285     1.340252    -0.553690
H     -1.564796     1.203609    -0.756724
O     -0.255842     2.581241     0.110183
P     -1.414927     3.115732     1.221143
O     -2.187130     1.886733     1.666020
O     -2.046784     4.382410     0.713605
O     -0.366718     3.573624     2.435659
C      0.324758     2.557887     3.157748
H      1.269662     2.320101     2.650136
H     -0.293952     1.651095     3.225753
C      0.598314     3.074693     4.558419
H      1.104842     2.284534     5.129865
O      1.515661     4.191649     4.541829
C      0.713705     5.386734     4.565387
H      1.372315     6.200461     4.885620
H      0.315406     5.589920     3.565526
C     -0.401607     5.059980     5.553398
H     -1.284188     5.694798     5.418634
H     -0.033355     5.186593     6.578696
C     -0.687263     3.578423     5.254177
H     -1.538043     3.473169     4.575370
H     -0.899101     3.008282     6.165508
