32
Energy = -1142.567624530 Hartree (EUMP2 CORRECTED)
O      1.683878     0.369004     0.161321
C      2.013842     1.535120    -0.630867
H      2.901462     1.278306    -1.217770
H      2.245668     2.386209     0.018695
C      0.250037     0.354287     0.360334
H     -0.125807    -0.611048    -0.004164
H      0.021468     0.461978     1.425654
C      0.766622     1.805995    -1.453813
H      0.696273     1.093456    -2.287548
H      0.690690     2.823928    -1.839702
C     -0.333053     1.524180    -0.431120
H     -1.294544     1.285276    -0.897661
O     -0.481008     2.621245     0.476365
P     -1.468114     3.908986     0.000777
O     -2.461508     4.132409     1.113445
O     -1.833636     3.736982    -1.455555
O     -0.327203     5.142269     0.045828
C      0.779960     5.137788     0.935122
H      1.055778     4.115120     1.210783
H      0.530670     5.698284     1.852981
C      1.939676     5.811845     0.222847
H      2.795414     5.871178     0.910897
O      2.382692     5.002423    -0.891490
C      1.807463     5.569447    -2.082910
H      2.397360     5.195746    -2.926126
H      0.761366     5.256821    -2.182190
C      1.921454     7.072008    -1.855642
H      1.252968     7.653087    -2.500791
H      2.953709     7.394738    -2.038470
C      1.565190     7.191417    -0.366435
H      0.491528     7.360475    -0.244285
H      2.106504     8.004312     0.130751
