32
Energy = -1142.552888129 Hartree (EUMP2 CORRECTED)
O      2.294893     0.730938     0.387059
C      2.303962     1.913984    -0.431165
H      3.225183     1.888455    -1.019919
H      2.289774     2.815736     0.197377
C      0.931897     0.578822     0.836342
H      0.731465    -0.496387     0.885644
H      0.799566     1.031696     1.826050
C      1.020342     1.804734    -1.238905
H      1.144241     1.051374    -2.028549
H      0.692703     2.754879    -1.670692
C      0.026314     1.326793    -0.167082
H     -0.749590     0.661731    -0.558475
O     -0.541615     2.427755     0.512567
P     -1.930378     3.334954     0.190578
O     -1.438357     4.558557    -0.560392
O     -2.749983     3.372083     1.448352
O     -2.839824     2.451088    -0.921096
C     -2.353107     1.799339    -2.084205
H     -2.425926     0.710336    -1.956415
H     -1.314522     2.076028    -2.304647
C     -3.203203     2.227591    -3.271195
H     -2.764026     1.807219    -4.187343
O     -4.538705     1.697412    -3.206124
C     -5.326302     2.607037    -2.402446
H     -6.349103     2.544975    -2.790292
H     -5.305348     2.280392    -1.358418
C     -4.688764     3.999708    -2.556860
H     -4.469208     4.433155    -1.578713
H     -5.349359     4.684346    -3.101620
C     -3.380826     3.747997    -3.333989
H     -2.538835     4.276697    -2.874903
H     -3.482060     4.058215    -4.380980
