32
Energy = -1142.561121546 Hartree (EUMP2 CORRECTED)
O      1.360120     0.198954     0.249969
C      1.794839     1.364104    -0.484804
H      2.761950     1.111983    -0.932183
H      1.911314     2.217758     0.195423
C     -0.088966     0.213597     0.279445
H     -0.434961    -0.754984    -0.103781
H     -0.437906     0.354481     1.307414
C      0.676248     1.619642    -1.480017
H      0.710904     0.877601    -2.289447
H      0.662615     2.627328    -1.899310
C     -0.549893     1.375279    -0.600515
H     -1.451219     1.150553    -1.180392
O     -0.798269     2.486072     0.268408
P     -1.583153     3.818469    -0.369572
O     -2.242871     4.552240     0.766791
O     -2.300292     3.402741    -1.641183
O     -0.183997     4.656499    -0.832571
C     -0.431072     5.729486    -1.736048
H     -1.040792     5.398584    -2.588242
H     -0.983211     6.517987    -1.203078
C      0.909089     6.285348    -2.233060
H      0.768504     7.358622    -2.426299
O      1.969944     6.208934    -1.271049
C      2.793747     5.100596    -1.650745
H      3.754857     5.228758    -1.143706
H      2.327884     4.162015    -1.327517
C      2.862896     5.203518    -3.172957
H      3.192056     4.274976    -3.653987
H      3.556387     6.005403    -3.452878
C      1.412756     5.581175    -3.516109
H      0.819864     4.678337    -3.703792
H      1.331578     6.225922    -4.397308
