32
Energy = -1142.568757628 Hartree (EUMP2 CORRECTED)
O      1.374689    -0.207699    -0.132159
C      1.689385     0.699831    -1.211572
H      2.227361     0.118267    -1.966876
H      2.329799     1.513152    -0.846162
C      0.159362     0.261767     0.500782
H     -0.555543    -0.571116     0.501622
H      0.372230     0.570580     1.529292
C      0.342864     1.238650    -1.662357
H     -0.194966     0.476821    -2.243015
H      0.399157     2.171275    -2.228545
C     -0.349442     1.448863    -0.315148
H     -1.441325     1.488844    -0.390391
O      0.129654     2.638920     0.326651
P     -0.573659     4.091980    -0.094799
O     -0.210187     5.106125     0.963756
O     -1.987844     3.843387    -0.570766
O      0.411225     4.384421    -1.439700
C      0.371570     5.724711    -1.934098
H     -0.439894     6.293254    -1.465983
H      0.164288     5.675601    -3.010379
C      1.697587     6.482322    -1.695540
H      2.313849     6.432323    -2.601061
O      1.415674     7.888404    -1.508025
C      1.168249     8.029409    -0.092425
H      1.235479     9.098735     0.129780
H      0.167394     7.659550     0.161232
C      2.232450     7.166596     0.581992
H      1.869471     6.756949     1.528374
H      3.140645     7.754450     0.761743
C      2.490956     6.047933    -0.450244
H      2.149484     5.078458    -0.087406
H      3.556639     5.975745    -0.696283
