32
Energy = -1142.564327882 Hartree (EUMP2 CORRECTED)
O      0.517380     0.131698     1.073417
C      1.509898     1.011865     0.497016
H      2.472140     0.494988     0.569580
H      1.551916     1.951620     1.062375
C     -0.739595     0.372697     0.395405
H     -1.078725    -0.582236    -0.027875
H     -1.478784     0.745428     1.111612
C      1.028150     1.261043    -0.921119
H      1.217964     0.378943    -1.548002
H      1.460774     2.148494    -1.388914
C     -0.476632     1.411286    -0.691999
H     -1.065546     1.248570    -1.601116
O     -0.800946     2.690776    -0.132786
P     -0.794742     4.010794    -1.163076
O     -1.568234     5.120229    -0.493645
O     -1.062756     3.507085    -2.565241
O      0.848068     4.385010    -1.095601
C      1.267322     5.661392    -0.625667
H      0.412532     6.210675    -0.214986
H      1.985333     5.477605     0.186606
C      1.972302     6.482786    -1.740278
H      2.919354     6.871892    -1.342184
O      2.323872     5.715670    -2.890241
C      1.174513     5.698362    -3.780928
H      1.567943     5.887966    -4.787349
H      0.695399     4.717113    -3.736538
C      0.227524     6.810686    -3.293699
H     -0.637724     6.376101    -2.784812
H     -0.141416     7.431340    -4.118560
C      1.092811     7.598935    -2.299054
H      0.504522     8.112279    -1.530941
H      1.720004     8.334858    -2.818759
