32
Energy = -1142.573649578 Hartree (EUMP2 CORRECTED)
O      1.542273     0.315663     0.210228
C      1.857465     1.501603    -0.549398
H      2.728918     1.261184    -1.166998
H      2.103439     2.329733     0.128805
C      0.115372     0.322787     0.478381
H     -0.291801    -0.629904     0.116356
H     -0.060579     0.419109     1.553899
C      0.587335     1.804731    -1.328658
H      0.487182     1.101489    -2.167140
H      0.511974     2.832610    -1.696276
C     -0.473513     1.520966    -0.266555
H     -1.469076     1.304992    -0.667705
O     -0.533665     2.646245     0.614457
P     -2.039090     3.332882     0.929149
O     -1.888141     4.075167     2.232026
O     -3.122485     2.338567     0.589997
O     -2.055282     4.457558    -0.325491
C     -1.072991     5.488245    -0.266788
H     -0.097973     5.078286     0.025982
H     -1.366188     6.253139     0.469172
C     -0.968769     6.099028    -1.651721
H     -0.264179     6.941832    -1.617673
O     -0.396396     5.148688    -2.584362
C     -1.487117     4.571673    -3.321782
H     -1.059343     4.132457    -4.228742
H     -1.978881     3.798335    -2.719797
C     -2.417231     5.752106    -3.574281
H     -3.437188     5.444905    -3.831351
H     -2.018845     6.364205    -4.392516
C     -2.340739     6.504954    -2.237353
H     -3.136099     6.170966    -1.565197
H     -2.421528     7.590431    -2.363745
