32
Energy = -1142.573607581 Hartree (EUMP2 CORRECTED)
O      2.231038     0.523716     0.126115
C      2.420161     1.938504     0.353761
H      3.483368     2.144599     0.195555
H      2.144709     2.192541     1.385512
C      0.874474     0.328551    -0.341566
H      0.927665    -0.227361    -1.286456
H      0.305065    -0.245567     0.396407
C      1.486461     2.613321    -0.635636
H      1.906921     2.557369    -1.649249
H      1.223477     3.647455    -0.398756
C      0.255326     1.713671    -0.527736
H     -0.406805     1.761950    -1.400209
O     -0.486638     2.012072     0.661672
P     -1.617857     3.236776     0.582230
O     -1.001607     4.491469    -0.006034
O     -2.369224     3.212305     1.889129
O     -2.557167     2.523742    -0.625677
C     -3.275265     3.362688    -1.529404
H     -2.996841     3.071898    -2.551906
H     -3.004563     4.416943    -1.381240
C     -4.770306     3.160487    -1.350686
H     -5.297019     3.794023    -2.080179
O     -5.132841     1.796957    -1.682806
C     -5.301517     1.095100    -0.437893
H     -5.891362     0.199325    -0.658312
H     -4.322797     0.815667    -0.030194
C     -5.999917     2.108124     0.458621
H     -5.915625     1.865726     1.523526
H     -7.062274     2.166012     0.189663
C     -5.258043     3.401975     0.094289
H     -4.409446     3.542270     0.770734
H     -5.902530     4.286303     0.155306
