32
Energy = -1142.568780610 Hartree (EUMP2 CORRECTED)
O      1.617367    -0.436610     0.350762
C      2.490453     0.679467     0.140155
H      3.462235     0.282962    -0.168759
H      2.605719     1.255756     1.071276
C      0.293770     0.149923     0.458102
H     -0.428050    -0.605963     0.146765
H      0.104492     0.428066     1.500073
C      1.761867     1.497105    -0.917654
H      1.882902     1.014057    -1.894835
H      2.075082     2.543266    -0.986256
C      0.305555     1.405528    -0.448777
H     -0.395000     1.279865    -1.284334
O     -0.019377     2.623267     0.226758
P     -1.334377     2.628293     1.284752
O     -0.798143     2.818866     2.687515
O     -2.270240     1.515095     0.880580
O     -2.027462     4.056482     0.779085
C     -1.398263     5.288985     1.138611
H     -1.078432     5.789948     0.215573
H     -0.525707     5.108205     1.780577
C     -2.391471     6.165949     1.882130
H     -1.895180     7.113013     2.138795
O     -3.503635     6.528980     1.031409
C     -4.559084     5.587901     1.305224
H     -5.486304     6.043544     0.942338
H     -4.366961     4.647222     0.778524
C     -4.506306     5.399902     2.818056
H     -4.958173     4.455008     3.138791
H     -5.036312     6.224753     3.309886
C     -2.997695     5.461241     3.115937
H     -2.563117     4.463916     3.227872
H     -2.788231     6.024238     4.032490
