32
Energy = -1142.563774329 Hartree (EUMP2 CORRECTED)
O      1.628665     0.244002    -0.008426
C      1.967581     1.407974    -0.792760
H      2.874187     1.159379    -1.354769
H      2.169964     2.259043    -0.128810
C      0.186913     0.215975     0.147692
H     -0.169457    -0.746278    -0.243107
H     -0.069279     0.306135     1.207930
C      0.740264     1.670809    -1.647755
H      0.687789     0.943154    -2.469113
H      0.676276     2.685358    -2.047695
C     -0.378355     1.395279    -0.640358
H     -1.336619     1.174858    -1.123303
O     -0.540929     2.477419     0.281068
P     -1.371075     3.849404    -0.265456
O     -1.792503     4.589625     0.976855
O     -2.260606     3.430480    -1.408964
O     -0.078651     4.674930    -0.965995
C      0.821646     5.295263    -0.044763
H      0.348833     6.157177     0.439681
H      1.100847     4.571392     0.735109
C      2.062575     5.743429    -0.811223
H      2.022692     5.292894    -1.812308
O      2.080942     7.189253    -0.994259
C      3.367312     7.706782    -0.626171
H      3.630092     8.495641    -1.339263
H      3.314909     8.148289     0.381352
C      4.313539     6.510491    -0.642813
H      5.207328     6.665084    -0.027482
H      4.631610     6.291032    -1.669233
C      3.388341     5.412840    -0.124777
H      3.276828     5.494195     0.965080
H      3.722333     4.396031    -0.354994
