32
Energy = -1142.572404034 Hartree (EUMP2 CORRECTED)
O      1.412370     0.375475    -1.352444
C      1.403250     1.707474    -1.890911
H      1.887658     1.659330    -2.871012
H      1.960066     2.392557    -1.235899
C      0.379879     0.331615    -0.332439
H     -0.143965    -0.623095    -0.444332
H      0.838103     0.386386     0.658045
C     -0.073068     2.070368    -1.920496
H     -0.569016     1.524821    -2.733535
H     -0.279003     3.140704    -2.012371
C     -0.539704     1.545659    -0.564168
H     -1.595866     1.259287    -0.541994
O     -0.303160     2.590884     0.382600
P     -0.877690     2.378054     1.946072
O     -1.735676     1.126659     1.966216
O     -1.318349     3.732362     2.434796
O      0.568930     2.039053     2.732461
C      0.771772     0.774965     3.366152
H      1.754002     0.396782     3.050815
H     -0.012782     0.068464     3.064001
C      0.766079     0.918467     4.879351
H      0.846197    -0.087701     5.315491
O      1.913947     1.640247     5.364697
C      1.589352     3.049283     5.310437
H      2.146577     3.519694     6.128431
H      1.922669     3.461288     4.352622
C      0.060951     3.161939     5.454466
H     -0.367264     3.728284     4.623730
H     -0.216979     3.648168     6.397186
C     -0.434182     1.701972     5.417078
H     -1.321827     1.579914     4.788148
H     -0.670042     1.343190     6.426333
