32
Energy = -1142.566949176 Hartree (EUMP2 CORRECTED)
O      1.631249    -0.226202     0.596420
C      2.220488     0.782385    -0.236359
H      3.157288     0.371860    -0.626850
H      2.429331     1.689976     0.347355
C      0.198674     0.035697     0.650278
H     -0.306569    -0.907121     0.408766
H     -0.071528     0.373356     1.652138
C      1.156471     1.053639    -1.288238
H      1.108238     0.212870    -1.992627
H      1.283821     1.991253    -1.837460
C     -0.098597     1.099535    -0.420858
H     -1.013493     0.844546    -0.974931
O     -0.221724     2.446319     0.042114
P     -1.115392     2.852487     1.417526
O     -0.406527     2.304200     2.642863
O     -2.581754     2.630930     1.149498
O     -0.804449     4.480654     1.313103
C      0.524932     4.932267     1.583148
H      0.937697     5.351863     0.656532
H      1.156154     4.100491     1.923320
C      0.486228     6.000454     2.662342
H      1.515334     6.336784     2.853917
O     -0.226944     7.174948     2.210684
C     -1.582503     7.041574     2.678731
H     -2.023533     8.043395     2.648668
H     -2.139179     6.362910     2.023886
C     -1.436809     6.466004     4.084206
H     -2.339986     5.943991     4.418334
H     -1.220166     7.275138     4.792339
C     -0.229643     5.521036     3.944475
H     -0.538555     4.477829     3.832477
H      0.435895     5.584342     4.812755
