32
Energy = -1142.560622151 Hartree (EUMP2 CORRECTED)
O      0.882386     0.041182    -1.268619
C      0.557786     1.112075    -2.163092
H     -0.303304     0.825499    -2.794451
H      1.429955     1.280369    -2.800456
C     -0.107499     0.104449    -0.221449
H     -0.988993    -0.476263    -0.539735
H      0.312440    -0.324672     0.688339
C      0.225829     2.269548    -1.236512
H      1.152566     2.698117    -0.842592
H     -0.369378     3.062604    -1.703742
C     -0.506764     1.592675    -0.057813
H     -1.595070     1.688069    -0.164262
O     -0.201368     2.282788     1.152598
P      0.851865     1.843898     2.383583
O      0.794428     0.348635     2.626871
O      0.659063     2.894886     3.439572
O      2.315007     2.189301     1.626065
C      3.088786     1.140022     1.046374
H      3.391326     0.414012     1.816350
H      2.533998     0.611233     0.264128
C      4.311887     1.792105     0.430496
H      4.952195     1.009833    -0.000803
O      3.924572     2.640234    -0.681254
C      3.935737     3.995901    -0.203826
H      3.996275     4.642020    -1.085829
H      3.016831     4.203815     0.357501
C      5.159472     4.053904     0.702155
H      5.138898     4.903272     1.394318
H      6.067316     4.121293     0.090043
C      5.077839     2.699004     1.419560
H      4.501037     2.793421     2.344191
H      6.066240     2.291868     1.660973
